# Model for single Dendrimer

      62     atoms
      61     bonds

      2      atom types
      3      bond types

  -530.0000   +530.0000 xlo xhi
  -530.0000   +530.0000 ylo yhi
  -530.0000   +530.0000 zlo zhi


Masses

         1          1.0
         2          1.0

Atoms

          1    1    1           0.790     -99.366     -53.614
          2    1    1           2.199     -97.994     -53.471
          3    1    1           0.018     -99.885     -51.826
          4    1    1           1.504     -97.501     -53.919
          5    1    1           0.350     -98.458     -53.917
          6    1    1           1.275     -99.201     -54.557
          7    1    1          -0.413     -99.427     -50.169
          8    1    1          -0.366     -99.464     -53.669
          9    1    1           1.453     -97.447     -52.054
         10    1    1           2.331     -96.018     -53.069
         11    1    1          -0.900     -97.360     -54.907
         12    1    1           2.114     -98.349     -54.435
         13    1    1           1.251     -99.923     -52.787
         14    1    1           0.473     -97.585     -54.079
         15    1    1          -2.255     -99.780     -50.372
         16    1    1          -2.162     -98.540     -50.674
         17    1    1          -0.339    -101.016     -54.667
         18    1    1          -1.152     -97.775     -52.951
         19    1    1           2.018     -97.537     -50.204
         20    1    1           1.652     -99.394     -52.124
         21    1    1           3.780     -94.631     -52.748
         22    1    1           3.051     -97.623     -52.257
         23    1    1          -2.410     -95.934     -54.821
         24    1    1           0.899     -98.201     -54.692
         25    1    1           3.678     -98.455     -55.417
         26    1    1           1.835     -96.964     -53.113
         27    1    1           0.530    -101.598     -51.837
         28    1    1           2.983     -98.992     -52.460
         29    1    1           1.626     -98.518     -52.781
         30    1    1           0.244     -96.905     -55.642
         31    1    2           0.124     -98.348     -50.070
         32    1    2          -3.834     -97.671     -50.603
         33    1    2          -3.910     -97.506     -48.727
         34    1    2          -4.742     -99.844     -49.957
         35    1    2          -0.166    -100.152     -57.292
         36    1    2           2.026    -101.888     -53.534
         37    1    2          -3.440     -99.507     -52.521
         38    1    2          -1.183     -99.970     -51.003
         39    1    2           2.167     -94.648     -48.941
         40    1    2           0.529     -97.424     -47.748
         41    1    2          -0.260    -101.088     -52.673
         42    1    2           3.185     -98.837     -49.799
         43    1    2           6.274     -93.670     -54.123
         44    1    2           4.805     -95.534     -55.138
         45    1    2           4.978     -99.135     -50.570
         46    1    2           1.750     -98.926     -49.952
         47    1    2          -3.551     -95.686     -52.471
         48    1    2          -3.552     -94.194     -52.986
         49    1    2          -1.003     -96.584     -56.165
         50    1    2          -1.122     -99.096     -52.812
         51    1    2           3.563     -98.512     -58.158
         52    1    2           5.779    -100.375     -55.994
         53    1    2           0.520     -94.616     -53.753
         54    1    2           2.053     -93.879     -53.014
         55    1    2           0.140    -101.406     -48.716
         56    1    2          -1.580    -100.419     -53.133
         57    1    2           1.969     -96.326     -51.543
         58    1    2           2.108    -100.422     -50.274
         59    1    2           2.944    -100.811     -51.728
         60    1    2           2.250     -96.934     -55.090
         61    1    2          -2.021     -96.879     -57.492
         62    1    2           0.646     -93.779     -55.434
          
Bonds  

	  1   2     1     3          
	  2   2     1     4          
	  3   1     1     2          
	  4   2     2     5          
	  5   2     2     6          
	  6   2     3     7          
	  7   2     3     8          
	  8   2     4     9          
	  9   2     4    10         
	 10   2     5    11         
	 11   2     5    12         
	 12   2     6    13         
	 13   2     6    14         
	 14   2     7    15         
	 15   2     7    16         
	 16   2     8    17         
	 17   2     8    18         
	 18   2     9    19         
	 19   2     9    20         
	 20   2     10   21        
	 21   2     10   22        
	 22   2     11   23        
	 23   2     11   24        
	 24   2     12   25        
	 25   2     12   26        
	 26   2     13   27        
	 27   2     13   28        
	 28   2     14   29        
	 29   2     14   30        
	 30   3     15   31        
	 31   3     15   32        
	 32   3     16   33        
	 33   3     16   34        
	 34   3     17   35        
	 35   3     17   36        
	 36   3     18   37        
	 37   3     18   38        
	 38   3     19   39        
	 39   3     19   40        
	 40   3     20   41        
	 41   3     20   42        
	 42   3     21   43        
	 43   3     21   44        
	 44   3     22   45        
	 45   3     22   46        
	 46   3     23   47        
	 47   3     23   48        
	 48   3     24   49        
	 49   3     24   50        
	 50   3     25   51        
	 51   3     25   52        
	 52   3     26   53        
	 53   3     26   54        
	 54   3     27   55        
	 55   3     27   56        
	 56   3     28   57        
	 57   3     28   58        
	 58   3     29   59        
	 59   3     29   60        
	 60   3     30   61        
     61   3     30   62 
